define      = -DPOSRES
integrator  = md
nsteps      = 5000
dt          = 0.002
continuation = yes
constraint_algorithm = lincs
constraints = h-bonds
cutoff-scheme = Verlet
coulombtype = PME
rcoulomb    = 1.0
rvdw        = 1.0
tcoupl      = V-rescale
tc-grps     = Protein_CURC  Water_and_ions
tau_t       = 0.1        0.1
ref_t       = 300        300
pcoupl      = Berendsen
pcoupltype  = isotropic
tau_p       = 2.0
ref_p       = 1.0
refcoord_scaling = com
compressibility = 4.5e-5
pbc         = xyz
DispCorr    = EnerPres
gen_vel     = no
nstxout     = 500
nstvout     = 500
nstenergy   = 500
nstlog      = 500
