[ atomtypes ]
; name    mass    charge  ptype   sigma(nm)   epsilon(kJ/mol)
     C_sp3    12.011  0.0000  A     0.35081     0.28366
   O_ether    15.999  0.0000  A     0.31700     0.31905
      C_ar    12.011  0.0000  A     0.37356     0.28366
     C_sp2    12.011  0.0000  A     0.37356     0.28366
O_carbonyl    15.999  0.0000  A     0.31118     0.31905
O_hydroxyl    15.999  0.0000  A     0.31700     0.31905
H_curc  1.008  0.0000  A  0.26458     0.09027
