; curcumin.itp -- generated from DFT-optimized geometry (Project 1)
; force field: generic bonded params by chemical analogy + MMFF94 charges/vdW

[ moleculetype ]
; Name            nrexcl
CURC                3

[ atoms ]
;   nr  type  resnr residue  atom  cgnr    charge      mass
     1       C_sp3      1    CURC   C1       1      0.2800    12.011
     2     O_ether      1    CURC   O2       2     -0.3625    15.999
     3        C_ar      1    CURC   C3       3      0.0825    12.011
     4        C_ar      1    CURC   C4       4     -0.1500    12.011
     5        C_ar      1    CURC   C5       5      0.0284    12.011
     6       C_sp2      1    CURC   C6       6     -0.1784    12.011
     7       C_sp2      1    CURC   C7       7     -0.1356    12.011
     8       C_sp2      1    CURC   C8       8      0.4946    12.011
     9  O_carbonyl      1    CURC   O9       9     -0.5700    15.999
    10       C_sp3      1    CURC   C10     10      0.1220    12.011
    11       C_sp2      1    CURC   C11     11      0.4946    12.011
    12  O_carbonyl      1    CURC   O12     12     -0.5700    15.999
    13       C_sp2      1    CURC   C13     13     -0.1356    12.011
    14       C_sp2      1    CURC   C14     14     -0.1784    12.011
    15        C_ar      1    CURC   C15     15      0.0284    12.011
    16        C_ar      1    CURC   C16     16     -0.1500    12.011
    17        C_ar      1    CURC   C17     17     -0.1500    12.011
    18        C_ar      1    CURC   C18     18      0.0825    12.011
    19  O_hydroxyl      1    CURC   O19     19     -0.5325    15.999
    20        C_ar      1    CURC   C20     20      0.0825    12.011
    21     O_ether      1    CURC   O21     21     -0.3625    15.999
    22       C_sp3      1    CURC   C22     22      0.2800    12.011
    23        C_ar      1    CURC   C23     23     -0.1500    12.011
    24        C_ar      1    CURC   C24     24     -0.1500    12.011
    25        C_ar      1    CURC   C25     25     -0.1500    12.011
    26        C_ar      1    CURC   C26     26      0.0825    12.011
    27  O_hydroxyl      1    CURC   O27     27     -0.5325    15.999
28 H_curc 1 CURC H28 28 0.0000 1.008
29 H_curc 1 CURC H29 29 0.0000 1.008
30 H_curc 1 CURC H30 30 0.0000 1.008
31 H_curc 1 CURC H31 31 0.1500 1.008
32 H_curc 1 CURC H32 32 0.1500 1.008
33 H_curc 1 CURC H33 33 0.1500 1.008
34 H_curc 1 CURC H34 34 0.0000 1.008
35 H_curc 1 CURC H35 35 0.0000 1.008
36 H_curc 1 CURC H36 36 0.1500 1.008
37 H_curc 1 CURC H37 37 0.1500 1.008
38 H_curc 1 CURC H38 38 0.1500 1.008
39 H_curc 1 CURC H39 39 0.1500 1.008
40 H_curc 1 CURC H40 40 0.4500 1.008
41 H_curc 1 CURC H41 41 0.0000 1.008
42 H_curc 1 CURC H42 42 0.0000 1.008
43 H_curc 1 CURC H43 43 0.0000 1.008
44 H_curc 1 CURC H44 44 0.1500 1.008
45 H_curc 1 CURC H45 45 0.1500 1.008
46 H_curc 1 CURC H46 46 0.1500 1.008
47 H_curc 1 CURC H47 47 0.4500 1.008

[ bonds ]
;   ai    aj  funct     r0(nm)    kb(kJ/mol/nm^2)
     2     1      1     0.14185        267776.0
     3     2      1     0.13613        267776.0
     4     3      1     0.13910        392459.0
     5     4      1     0.14142        392459.0
     6     5      1     0.14567        317984.0
     7     6      1     0.13519        449000.0
     8     7      1     0.14762        449000.0
     9     8      1     0.12267        476976.0
    10     8      1     0.15339        265265.0
    11    10      1     0.15373        265265.0
    12    11      1     0.12253        476976.0
    13    11      1     0.14759        449000.0
    14    13      1     0.13520        449000.0
    15    14      1     0.14558        317984.0
    16    15      1     0.14019        392459.0
    17    16      1     0.13950        392459.0
    18    17      1     0.13926        392459.0
    19    18      1     0.13606        267776.0
    20    18      1     0.14202        392459.0
    21    20      1     0.13604        267776.0
    22    21      1     0.14193        267776.0
    23    20      1     0.13883        392459.0
    23    15      1     0.14155        392459.0
    24     5      1     0.14038        392459.0
    25    24      1     0.13921        392459.0
    26    25      1     0.13961        392459.0
    26     3      1     0.14157        392459.0
    27    26      1     0.13608        267776.0
    28     1      1     0.10986        284512.0
    29     1      1     0.10985        284512.0
    30     1      1     0.10916        284512.0
    31     4      1     0.10846        307105.0
    32     6      1     0.10903        300000.0
    33     7      1     0.10871        300000.0
    34    10      1     0.10939        284512.0
    35    10      1     0.10947        284512.0
    36    13      1     0.10870        300000.0
    37    14      1     0.10901        300000.0
    38    16      1     0.10865        307105.0
    39    17      1     0.10888        307105.0
    40    19      1     0.09706        462750.0
    41    22      1     0.10984        284512.0
    42    22      1     0.10915        284512.0
    43    22      1     0.10983        284512.0
    44    23      1     0.10831        307105.0
    45    24      1     0.10852        307105.0
    46    25      1     0.10890        307105.0
    47    27      1     0.09706        462750.0

[ pairs ]
;   ai    aj  funct
     3    28      1
     4     1      1
     5     2      1
     6     3      1
     7     4      1
     8     5      1
     9     6      1
    11     7      1
    12     8      1
    14    10      1
    15    11      1
    16    13      1
    17    14      1
    18    15      1
    19    16      1
    40    17      1
    21    17      1
    22    18      1
    41    20      1
    20    14      1
    25     4      1
    26     5      1
     3    24      1
    25     2      1
    47    25      1

[ angles ]
;   ai    aj    ak  funct   theta0(deg)   k(kJ/mol/rad^2)
     2     1    28      1     111.563       320.0
     2     1    29      1     111.595       320.0
     2     1    30      1     105.795       320.0
    28     1    29      1     109.143       320.0
    28     1    30      1     109.337       320.0
    29     1    30      1     109.327       320.0
     1     2     3      1     117.977       400.0
     2     3     4      1     125.523       560.0
     2     3    26      1     115.491       560.0
     4     3    26      1     118.987       560.0
     3     4     5      1     121.787       560.0
     3     4    31      1     119.824       320.0
     5     4    31      1     118.389       320.0
     4     5     6      1     118.353       560.0
     4     5    24      1     118.270       560.0
     6     5    24      1     123.377       560.0
     5     6     7      1     128.384       560.0
     5     6    32      1     116.012       320.0
     7     6    32      1     115.603       320.0
     6     7     8      1     120.625       560.0
     6     7    33      1     122.332       320.0
     8     7    33      1     117.043       320.0
     7     8     9      1     123.512       560.0
     7     8    10      1     115.882       560.0
     9     8    10      1     120.583       560.0
     8    10    11      1     110.372       460.0
     8    10    34      1     111.024       320.0
     8    10    35      1     107.490       320.0
    11    10    34      1     107.597       320.0
    11    10    35      1     110.143       320.0
    34    10    35      1     110.231       320.0
    10    11    12      1     120.663       560.0
    10    11    13      1     115.590       560.0
    12    11    13      1     123.737       560.0
    11    13    14      1     120.756       560.0
    11    13    36      1     116.800       320.0
    14    13    36      1     122.444       320.0
    13    14    15      1     128.302       560.0
    13    14    37      1     115.828       320.0
    15    14    37      1     115.870       320.0
    14    15    16      1     118.943       560.0
    14    15    23      1     122.711       560.0
    16    15    23      1     118.345       560.0
    15    16    17      1     120.729       560.0
    15    16    38      1     119.613       320.0
    17    16    38      1     119.658       320.0
    16    17    18      1     120.650       560.0
    16    17    39      1     120.140       320.0
    18    17    39      1     119.210       320.0
    17    18    19      1     123.512       560.0
    17    18    20      1     119.558       560.0
    19    18    20      1     116.930       560.0
    18    19    40      1     108.551       320.0
    18    20    21      1     115.193       560.0
    18    20    23      1     119.329       560.0
    21    20    23      1     125.479       560.0
    20    21    22      1     117.970       400.0
    21    22    41      1     111.533       320.0
    21    22    42      1     105.777       320.0
    21    22    43      1     111.551       320.0
    41    22    42      1     109.362       320.0
    41    22    43      1     109.146       320.0
    42    22    43      1     109.395       320.0
    20    23    15      1     121.389       560.0
    20    23    44      1     119.476       320.0
    15    23    44      1     119.134       320.0
     5    24    25      1     120.368       560.0
     5    24    45      1     120.427       320.0
    25    24    45      1     119.204       320.0
    24    25    26      1     121.066       560.0
    24    25    46      1     119.944       320.0
    26    25    46      1     118.990       320.0
    25    26     3      1     119.523       560.0
    25    26    27      1     123.343       560.0
     3    26    27      1     117.134       560.0
    26    27    47      1     108.606       320.0

[ dihedrals ]
;   ai    aj    ak    al  funct   phase  kd(kJ/mol)  mult
     3     2     1    28      1       0.0       3.000     3
     4     3     2     1      1     180.0      25.000     2
     5     4     3     2      1     180.0      25.000     2
     6     5     4     3      1     180.0      25.000     2
     7     6     5     4      1     180.0      25.000     2
     8     7     6     5      1     180.0      25.000     2
     9     8     7     6      1     180.0      25.000     2
    11    10     8     7      1       0.0       3.000     3
    12    11    10     8      1       0.0       3.000     3
    14    13    11    10      1     180.0      25.000     2
    15    14    13    11      1     180.0      25.000     2
    16    15    14    13      1     180.0      25.000     2
    17    16    15    14      1     180.0      25.000     2
    18    17    16    15      1     180.0      25.000     2
    19    18    17    16      1     180.0      25.000     2
    40    19    18    17      1     180.0      25.000     2
    21    20    18    17      1     180.0      25.000     2
    22    21    20    18      1     180.0      25.000     2
    41    22    21    20      1       0.0       3.000     3
    15    23    20    18      1     180.0      25.000     2
    20    23    15    14      1     180.0      25.000     2
    25    24     5     4      1     180.0      25.000     2
    26    25    24     5      1     180.0      25.000     2
     3    26    25    24      1     180.0      25.000     2
    25    26     3     2      1     180.0      25.000     2
    47    27    26    25      1     180.0      25.000     2


; Include position restraints for curcumin (used during NVT/NPT equilibration)
#ifdef POSRES
#include "posre_curcumin.itp"
#endif
