;
;	File 'topol.top' was generated
;	By user: unknown (0)
;	On host: vm
;	At date: Sun Sep  6 16:19:07 2026
;
;	This is a standalone topology file
;
;	Created by:
;	         :-) GROMACS - gmx pdb2gmx, 2023.3-Ubuntu_2023.3_1ubuntu3 (-:
;	
;	Executable:   /usr/bin/gmx
;	Data prefix:  /usr
;	Working dir:  /home/claude/egfr_docking/md
;	Command line:
;	  gmx pdb2gmx -f ../receptor_protein_fixed.pdb -o protein_processed.gro -water tip3p -ff amber99sb-ildn -ignh
;	Force field was read from the standard GROMACS share directory.
;

; Include forcefield parameters
#include "amber99sb-ildn.ff/forcefield.itp"

; Include curcumin's custom atom types (from Project 2)
#include "curcumin_atomtypes.itp"

; Include chain topologies
#include "topol_Protein_chain_A.itp"
#include "topol_Protein_chain_A2.itp"

; Include curcumin topology (from Project 2)
#include "curcumin.itp"

; Include water topology
#include "amber99sb-ildn.ff/tip3p.itp"

#ifdef POSRES_WATER
; Position restraint for each water oxygen
[ position_restraints ]
;  i funct       fcx        fcy        fcz
   1    1       1000       1000       1000
#endif

; Include topology for ions
#include "amber99sb-ildn.ff/ions.itp"

[ system ]
; Name
Protein in water

[ molecules ]
; Compound        #mols
Protein_chain_A     1
Protein_chain_A2     1
CURC                 1
SOL         36490
NA               8
